<?xml version="1.0"?>
<VTKFile type="ImageData" version="0.1" byte_order="LittleEndian">
  <ImageData WholeExtent="0 4 0 4 0 11" Origin="0 0 0" Spacing="0.22 0.22 0.12">
    <Piece Extent="0 4 0 4 0 11">
      <PointData Scalars="fluorescence">
        <DataArray type="Float32" Name="fluorescence" format="ascii">
          0.02 0.04 0.06 0.04 0.02 0.05 0.18 0.26 0.18 0.05 0.08 0.30 0.48 0.30 0.08 0.05 0.18 0.26 0.18 0.05 0.02 0.04 0.06 0.04 0.02
          0.03 0.06 0.08 0.06 0.03 0.08 0.25 0.38 0.25 0.08 0.12 0.44 0.70 0.44 0.12 0.08 0.25 0.38 0.25 0.08 0.03 0.06 0.08 0.06 0.03
          0.04 0.08 0.12 0.08 0.04 0.12 0.36 0.54 0.36 0.12 0.18 0.62 0.92 0.62 0.18 0.12 0.36 0.54 0.36 0.12 0.04 0.08 0.12 0.08 0.04
          0.05 0.10 0.16 0.10 0.05 0.16 0.48 0.68 0.48 0.16 0.22 0.72 1.00 0.72 0.22 0.16 0.48 0.68 0.48 0.16 0.05 0.10 0.16 0.10 0.05
          0.06 0.12 0.18 0.12 0.06 0.20 0.54 0.72 0.54 0.20 0.26 0.76 0.96 0.76 0.26 0.20 0.54 0.72 0.54 0.20 0.06 0.12 0.18 0.12 0.06
          0.06 0.12 0.18 0.12 0.06 0.22 0.58 0.70 0.58 0.22 0.32 0.82 0.90 0.82 0.32 0.22 0.58 0.70 0.58 0.22 0.06 0.12 0.18 0.12 0.06
          0.05 0.10 0.16 0.10 0.05 0.18 0.48 0.62 0.48 0.18 0.28 0.74 0.86 0.74 0.28 0.18 0.48 0.62 0.48 0.18 0.05 0.10 0.16 0.10 0.05
          0.04 0.08 0.12 0.08 0.04 0.14 0.38 0.52 0.38 0.14 0.22 0.62 0.80 0.62 0.22 0.14 0.38 0.52 0.38 0.14 0.04 0.08 0.12 0.08 0.04
          0.03 0.06 0.10 0.06 0.03 0.10 0.30 0.44 0.30 0.10 0.16 0.48 0.70 0.48 0.16 0.10 0.30 0.44 0.30 0.10 0.03 0.06 0.10 0.06 0.03
          0.03 0.05 0.08 0.05 0.03 0.08 0.22 0.34 0.22 0.08 0.12 0.36 0.56 0.36 0.12 0.08 0.22 0.34 0.22 0.08 0.03 0.05 0.08 0.05 0.03
          0.02 0.04 0.06 0.04 0.02 0.06 0.16 0.26 0.16 0.06 0.10 0.28 0.44 0.28 0.10 0.06 0.16 0.26 0.16 0.06 0.02 0.04 0.06 0.04 0.02
          0.01 0.03 0.04 0.03 0.01 0.04 0.10 0.16 0.10 0.04 0.06 0.18 0.30 0.18 0.06 0.04 0.10 0.16 0.10 0.04 0.01 0.03 0.04 0.03 0.01
        </DataArray>
      </PointData>
      <CellData />
    </Piece>
  </ImageData>
</VTKFile>
