# vtk DataFile Version 3.0
Reactive helical diffusion field
ASCII
DATASET POLYDATA
POINTS 36 float
-2.80  0.00  0.40
-2.55  0.24  0.62
-2.30  0.44  0.74
-2.05  0.58  0.72
-1.80  0.66  0.55
-1.55  0.68  0.28
-1.30  0.62 -0.04
-1.05  0.48 -0.35
-0.80  0.28 -0.58
-0.55  0.04 -0.70
-0.30 -0.20 -0.68
-0.05 -0.42 -0.52
 0.20 -0.58 -0.25
 0.45 -0.66  0.08
 0.70 -0.64  0.40
 0.95 -0.52  0.66
 1.20 -0.32  0.78
 1.45 -0.08  0.74
 1.70  0.16  0.56
 1.95  0.38  0.28
 2.20  0.55 -0.06
 2.45  0.66 -0.38
 2.70  0.68 -0.62
 2.95  0.60 -0.74
-2.50 -0.55 -0.35
-2.15 -0.70  0.05
-1.80 -0.58  0.42
-1.45 -0.22  0.66
-1.10  0.25  0.68
-0.75  0.62  0.44
-0.40  0.72  0.02
-0.05  0.50 -0.42
 0.30  0.06 -0.70
 0.65 -0.40 -0.66
 1.00 -0.70 -0.32
 1.35 -0.68  0.16
POINT_DATA 36
VECTORS velocity float
 0.36  0.20  0.48
 0.38  0.12  0.34
 0.40 -0.02  0.16
 0.42 -0.18 -0.04
 0.44 -0.30 -0.22
 0.46 -0.34 -0.38
 0.48 -0.28 -0.46
 0.50 -0.12 -0.44
 0.52  0.08 -0.32
 0.54  0.26 -0.12
 0.56  0.34  0.10
 0.58  0.30  0.30
 0.60  0.16  0.44
 0.62 -0.05  0.50
 0.64 -0.25  0.42
 0.66 -0.36  0.22
 0.68 -0.34 -0.02
 0.70 -0.20 -0.26
 0.72  0.02 -0.42
 0.74  0.24 -0.48
 0.76  0.38 -0.36
 0.78  0.42 -0.12
 0.80  0.32  0.16
 0.82  0.10  0.40
 0.42  0.36  0.22
 0.46  0.20  0.46
 0.50 -0.08  0.50
 0.54 -0.34  0.32
 0.58 -0.46 -0.02
 0.62 -0.30 -0.38
 0.66  0.02 -0.52
 0.70  0.34 -0.34
 0.74  0.46  0.04
 0.78  0.28  0.42
 0.82 -0.08  0.54
 0.86 -0.38  0.26
