# vtk DataFile Version 3.0
AeroWing VTK mesh sample
ASCII
DATASET UNSTRUCTURED_GRID
POINTS 4 float
0 0 0
1 0 0
1 1 0
0 1 0
CELLS 1 5
4 0 1 2 3
CELL_TYPES 1
9
POINT_DATA 4
SCALARS displacement float 1
LOOKUP_TABLE default
0.0
0.1
0.2
0.1
CELL_DATA 1
SCALARS stress float 1
LOOKUP_TABLE default
125.0
